 Gaussian 09, Revision E.01,
 Gaussian 09:  EM64L-G09RevE.01 30-Nov-2015

 ---------------------------------------------------------
 # B3LYP/Def2TZVPP fchk=All Pop=NBO6Read SCFCYC=250 NOSYMM
 ---------------------------------------------------------

 ---------
 optimized
 ---------
 Symbolic Z-matrix:
 Charge =  0 Multiplicity = 1

                          Input orientation:
 ---------------------------------------------------------------------
 Center     Atomic      Atomic             Coordinates (Angstroms)
 Number     Number       Type             X           Y           Z
 ---------------------------------------------------------------------
      1          6           0        0.000000    1.390720    0.000000
      2          6           0       -1.204399    0.695360    0.000000
      3          6           0       -1.204399   -0.695360    0.000000
      4          6           0        0.000000   -1.390720    0.000000
      5          6           0        1.204399   -0.695360    0.000000
      6          6           0        1.204399    0.695360    0.000000
      7          1           0        0.000000    2.472848    0.000000
      8          1           0       -2.141549   -1.236424    0.000000
      9          1           0        0.000000   -2.472848    0.000000
     10          1           0        2.141549   -1.236424    0.000000
     11          1           0        2.141549    1.236424    0.000000
     12          1           0       -2.141549    1.236424    0.000000
 ---------------------------------------------------------------------

 SCF Done:  E(RB3LYP) =  -232.340006883     A.U. after   11 cycles

 Alpha  occ. eigenvalues --  -10.17727 -10.17704 -10.17704 -10.17645 -10.17645
 Alpha  occ. eigenvalues --  -10.17618  -0.85864  -0.74974  -0.74974  -0.60651
 Alpha  occ. eigenvalues --   -0.60651  -0.52879  -0.46433  -0.45183  -0.42608
 Alpha  occ. eigenvalues --   -0.42608  -0.37358  -0.34869  -0.34869  -0.25962
 Alpha  occ. eigenvalues --   -0.25962
 Alpha virt. eigenvalues --   -0.01470  -0.01469   0.04509   0.07802   0.07802
 Alpha virt. eigenvalues --    0.10484   0.10485   0.12671   0.13968   0.14699
 Alpha virt. eigenvalues --    0.20519   0.20848   0.21523   0.21524   0.22854

 Mulliken charges:
               1
     1  C   -0.125739
     2  C   -0.125197
     3  C   -0.125197
     4  C   -0.125739
     5  C   -0.125197
     6  C   -0.125197
     7  H    0.125396
     8  H    0.125368
     9  H    0.125396
    10  H    0.125368
    11  H    0.125368
    12  H    0.125368
 Sum of Mulliken charges =  -0.00000

 Dipole moment (field-independent basis, Debye):
    X=             -0.0000    Y=              0.0000    Z=              0.0000  Tot=              0.0000
 Quadrupole moment (field-independent basis, Debye-Ang):
   XX=            -32.2341   YY=            -32.2344   ZZ=            -39.7717
   XY=              0.0000   XZ=             -0.0000   YZ=              0.0000

 Summary of Natural Population Analysis:

                                     Natural Population
             Natural    ---------------------------------------------
  Atom No    Charge        Core      Valence    Rydberg      Total
 --------------------------------------------------------------------
    C  1   -0.20994      1.99999     4.19074    0.01921     6.20994
    C  2   -0.20880      1.99999     4.18948    0.01933     6.20880
    C  3   -0.20880      1.99999     4.18948    0.01933     6.20880
    C  4   -0.20994      1.99999     4.19074    0.01921     6.20994
    C  5   -0.20880      1.99999     4.18948    0.01933     6.20880
    C  6   -0.20880      1.99999     4.18948    0.01933     6.20880
    H  7    0.20873      0.00000     0.79010    0.00116     0.79127
    H  8    0.20940      0.00000     0.78939    0.00121     0.79060
    H  9    0.20873      0.00000     0.79010    0.00116     0.79127
    H 10    0.20940      0.00000     0.78939    0.00121     0.79060
    H 11    0.20940      0.00000     0.78939    0.00121     0.79060
    H 12    0.20940      0.00000     0.78939    0.00121     0.79060
 ====================================================================
 * Total *  0.00000     11.99992    29.87719    0.12290    42.00000

 Normal termination of Gaussian 09 at Wed Dec 27 17:06:49 2017.
